[Molden Format]
[Title]
 Molden file created by orca_2mkl for BaseName=Quercetin

[Atoms] AU
O    1   8         -0.6160507197        -1.6365028320        -0.2362157667 
O    2   8          1.3832795300         5.0361201469        -0.1303911032 
O    3   8         -8.3355819767         3.2597775810         0.3193637166 
O    4   8         -3.8569310393         5.3384763283         0.1606267214 
O    5   8         -8.6058128139        -5.7031934722         0.0113383568 
O    6   8          8.9308457089        -1.0469082782         3.8531515871 
O    7   8         11.2665472104        -1.4097356959        -0.8352589512 
C    8   6         -4.4144002488         0.9184069011         0.0434637011 
C    9   6         -3.1917474402        -1.4097356959        -0.0982657590 
C   10   6          0.8352589512         0.5442411266        -0.2078698747 
C   11   6          3.5678029408         0.0340150704        -0.3647171438 
C   12   6         -0.1096041158         2.9026193417        -0.0925965806 
C   13   6         -2.8875015326         3.2408803197         0.0491328795 
C   14   6         -7.0486784795         1.0336801953         0.1776342566 
C   15   6         -4.5977036838        -3.6396125339        -0.1114938419 
C   16   6         -7.2300921884        -3.5318981443         0.0226767136 
C   17   6          4.9813180890        -0.2702308372         1.8387035283 
C   18   6         -8.4508552709        -1.1980863689         0.1662958998 
C   19   6          4.7413228700        -0.1455089123        -2.7193159067 
C   20   6          7.5683531664        -0.7558904536         1.6894151637 
C   21   6          7.3283579473        -0.6292788026        -2.8686042713 
C   22   6          8.7418730955        -0.9335247102        -0.6651835991 
H   23   1         -3.6509508907        -5.4575290748        -0.2229876838 
H   24   1          4.0818084493        -0.1341705555         3.6811865089 
H   25   1        -10.5030978523        -1.1111589667         0.2702308372 
H   26   1          3.6660686998         0.0869274022        -4.4540844977 
H   27   1          8.2316470394        -0.7653390842        -4.7073077996 
H   28   1          3.1501734652         4.5580194350        -0.2324363145 
H   29   1         -7.1734004044         4.6751824553         0.3212534428 
H   30   1        -10.3916040104        -5.2798948182         0.1133835680 
H   31   1         10.7034088225        -0.7086473002         3.5205597875 
H   32   1         11.8504725858        -2.2109795767         0.7067575741 
[GTO]
  1 0
s   5 1.0 
     2266.1767785000        -1.2615859742
      340.8701019100        -2.2748500410
       77.3631351670        -3.3479623295
       21.4796449400        -3.3299980531
        6.6589433124        -1.3203828288
s   1 1.0 
        0.8097597567         0.6083832301
s   1 1.0 
        0.2553077223         0.2559811911
p   3 1.0 
       17.7215043170         3.2460107647
        3.8635505440         2.5734959178
        1.0480920883         1.1208372892
p   1 1.0 
        0.2764154441         0.2856886381
d   1 1.0 
        1.2000000000         3.9222679946

  2 0
s   5 1.0 
     2266.1767785000        -1.2615859742
      340.8701019100        -2.2748500410
       77.3631351670        -3.3479623295
       21.4796449400        -3.3299980531
        6.6589433124        -1.3203828288
s   1 1.0 
        0.8097597567         0.6083832301
s   1 1.0 
        0.2553077223         0.2559811911
p   3 1.0 
       17.7215043170         3.2460107647
        3.8635505440         2.5734959178
        1.0480920883         1.1208372892
p   1 1.0 
        0.2764154441         0.2856886381
d   1 1.0 
        1.2000000000         3.9222679946

  3 0
s   5 1.0 
     2266.1767785000        -1.2615859742
      340.8701019100        -2.2748500410
       77.3631351670        -3.3479623295
       21.4796449400        -3.3299980531
        6.6589433124        -1.3203828288
s   1 1.0 
        0.8097597567         0.6083832301
s   1 1.0 
        0.2553077223         0.2559811911
p   3 1.0 
       17.7215043170         3.2460107647
        3.8635505440         2.5734959178
        1.0480920883         1.1208372892
p   1 1.0 
        0.2764154441         0.2856886381
d   1 1.0 
        1.2000000000         3.9222679946

  4 0
s   5 1.0 
     2266.1767785000        -1.2615859742
      340.8701019100        -2.2748500410
       77.3631351670        -3.3479623295
       21.4796449400        -3.3299980531
        6.6589433124        -1.3203828288
s   1 1.0 
        0.8097597567         0.6083832301
s   1 1.0 
        0.2553077223         0.2559811911
p   3 1.0 
       17.7215043170         3.2460107647
        3.8635505440         2.5734959178
        1.0480920883         1.1208372892
p   1 1.0 
        0.2764154441         0.2856886381
d   1 1.0 
        1.2000000000         3.9222679946

  5 0
s   5 1.0 
     2266.1767785000        -1.2615859742
      340.8701019100        -2.2748500410
       77.3631351670        -3.3479623295
       21.4796449400        -3.3299980531
        6.6589433124        -1.3203828288
s   1 1.0 
        0.8097597567         0.6083832301
s   1 1.0 
        0.2553077223         0.2559811911
p   3 1.0 
       17.7215043170         3.2460107647
        3.8635505440         2.5734959178
        1.0480920883         1.1208372892
p   1 1.0 
        0.2764154441         0.2856886381
d   1 1.0 
        1.2000000000         3.9222679946

  6 0
s   5 1.0 
     2266.1767785000        -1.2615859742
      340.8701019100        -2.2748500410
       77.3631351670        -3.3479623295
       21.4796449400        -3.3299980531
        6.6589433124        -1.3203828288
s   1 1.0 
        0.8097597567         0.6083832301
s   1 1.0 
        0.2553077223         0.2559811911
p   3 1.0 
       17.7215043170         3.2460107647
        3.8635505440         2.5734959178
        1.0480920883         1.1208372892
p   1 1.0 
        0.2764154441         0.2856886381
d   1 1.0 
        1.2000000000         3.9222679946

  7 0
s   5 1.0 
     2266.1767785000        -1.2615859742
      340.8701019100        -2.2748500410
       77.3631351670        -3.3479623295
       21.4796449400        -3.3299980531
        6.6589433124        -1.3203828288
s   1 1.0 
        0.8097597567         0.6083832301
s   1 1.0 
        0.2553077223         0.2559811911
p   3 1.0 
       17.7215043170         3.2460107647
        3.8635505440         2.5734959178
        1.0480920883         1.1208372892
p   1 1.0 
        0.2764154441         0.2856886381
d   1 1.0 
        1.2000000000         3.9222679946

  8 0
s   5 1.0 
     1238.4016938000         0.8208956682
      186.2900499200         1.4766449896
       42.2511763460         2.1526124058
       11.6765579320         2.1081722461
        3.5930506482         0.8290999933
s   1 1.0 
        0.4024514736         0.3601183351
s   1 1.0 
        0.1309018267         0.1551027052
p   3 1.0 
        9.4680970621         1.3467645142
        2.0103545142         1.0678070931
        0.5477100471         0.5108735714
p   1 1.0 
        0.1526861379         0.1360471976
d   1 1.0 
        0.8000000000         1.9292013661

  9 0
s   5 1.0 
     1238.4016938000         0.8208956682
      186.2900499200         1.4766449896
       42.2511763460         2.1526124058
       11.6765579320         2.1081722461
        3.5930506482         0.8290999933
s   1 1.0 
        0.4024514736         0.3601183351
s   1 1.0 
        0.1309018267         0.1551027052
p   3 1.0 
        9.4680970621         1.3467645142
        2.0103545142         1.0678070931
        0.5477100471         0.5108735714
p   1 1.0 
        0.1526861379         0.1360471976
d   1 1.0 
        0.8000000000         1.9292013661

 10 0
s   5 1.0 
     1238.4016938000         0.8208956682
      186.2900499200         1.4766449896
       42.2511763460         2.1526124058
       11.6765579320         2.1081722461
        3.5930506482         0.8290999933
s   1 1.0 
        0.4024514736         0.3601183351
s   1 1.0 
        0.1309018267         0.1551027052
p   3 1.0 
        9.4680970621         1.3467645142
        2.0103545142         1.0678070931
        0.5477100471         0.5108735714
p   1 1.0 
        0.1526861379         0.1360471976
d   1 1.0 
        0.8000000000         1.9292013661

 11 0
s   5 1.0 
     1238.4016938000         0.8208956682
      186.2900499200         1.4766449896
       42.2511763460         2.1526124058
       11.6765579320         2.1081722461
        3.5930506482         0.8290999933
s   1 1.0 
        0.4024514736         0.3601183351
s   1 1.0 
        0.1309018267         0.1551027052
p   3 1.0 
        9.4680970621         1.3467645142
        2.0103545142         1.0678070931
        0.5477100471         0.5108735714
p   1 1.0 
        0.1526861379         0.1360471976
d   1 1.0 
        0.8000000000         1.9292013661

 12 0
s   5 1.0 
     1238.4016938000         0.8208956682
      186.2900499200         1.4766449896
       42.2511763460         2.1526124058
       11.6765579320         2.1081722461
        3.5930506482         0.8290999933
s   1 1.0 
        0.4024514736         0.3601183351
s   1 1.0 
        0.1309018267         0.1551027052
p   3 1.0 
        9.4680970621         1.3467645142
        2.0103545142         1.0678070931
        0.5477100471         0.5108735714
p   1 1.0 
        0.1526861379         0.1360471976
d   1 1.0 
        0.8000000000         1.9292013661

 13 0
s   5 1.0 
     1238.4016938000         0.8208956682
      186.2900499200         1.4766449896
       42.2511763460         2.1526124058
       11.6765579320         2.1081722461
        3.5930506482         0.8290999933
s   1 1.0 
        0.4024514736         0.3601183351
s   1 1.0 
        0.1309018267         0.1551027052
p   3 1.0 
        9.4680970621         1.3467645142
        2.0103545142         1.0678070931
        0.5477100471         0.5108735714
p   1 1.0 
        0.1526861379         0.1360471976
d   1 1.0 
        0.8000000000         1.9292013661

 14 0
s   5 1.0 
     1238.4016938000         0.8208956682
      186.2900499200         1.4766449896
       42.2511763460         2.1526124058
       11.6765579320         2.1081722461
        3.5930506482         0.8290999933
s   1 1.0 
        0.4024514736         0.3601183351
s   1 1.0 
        0.1309018267         0.1551027052
p   3 1.0 
        9.4680970621         1.3467645142
        2.0103545142         1.0678070931
        0.5477100471         0.5108735714
p   1 1.0 
        0.1526861379         0.1360471976
d   1 1.0 
        0.8000000000         1.9292013661

 15 0
s   5 1.0 
     1238.4016938000         0.8208956682
      186.2900499200         1.4766449896
       42.2511763460         2.1526124058
       11.6765579320         2.1081722461
        3.5930506482         0.8290999933
s   1 1.0 
        0.4024514736         0.3601183351
s   1 1.0 
        0.1309018267         0.1551027052
p   3 1.0 
        9.4680970621         1.3467645142
        2.0103545142         1.0678070931
        0.5477100471         0.5108735714
p   1 1.0 
        0.1526861379         0.1360471976
d   1 1.0 
        0.8000000000         1.9292013661

 16 0
s   5 1.0 
     1238.4016938000         0.8208956682
      186.2900499200         1.4766449896
       42.2511763460         2.1526124058
       11.6765579320         2.1081722461
        3.5930506482         0.8290999933
s   1 1.0 
        0.4024514736         0.3601183351
s   1 1.0 
        0.1309018267         0.1551027052
p   3 1.0 
        9.4680970621         1.3467645142
        2.0103545142         1.0678070931
        0.5477100471         0.5108735714
p   1 1.0 
        0.1526861379         0.1360471976
d   1 1.0 
        0.8000000000         1.9292013661

 17 0
s   5 1.0 
     1238.4016938000         0.8208956682
      186.2900499200         1.4766449896
       42.2511763460         2.1526124058
       11.6765579320         2.1081722461
        3.5930506482         0.8290999933
s   1 1.0 
        0.4024514736         0.3601183351
s   1 1.0 
        0.1309018267         0.1551027052
p   3 1.0 
        9.4680970621         1.3467645142
        2.0103545142         1.0678070931
        0.5477100471         0.5108735714
p   1 1.0 
        0.1526861379         0.1360471976
d   1 1.0 
        0.8000000000         1.9292013661

 18 0
s   5 1.0 
     1238.4016938000         0.8208956682
      186.2900499200         1.4766449896
       42.2511763460         2.1526124058
       11.6765579320         2.1081722461
        3.5930506482         0.8290999933
s   1 1.0 
        0.4024514736         0.3601183351
s   1 1.0 
        0.1309018267         0.1551027052
p   3 1.0 
        9.4680970621         1.3467645142
        2.0103545142         1.0678070931
        0.5477100471         0.5108735714
p   1 1.0 
        0.1526861379         0.1360471976
d   1 1.0 
        0.8000000000         1.9292013661

 19 0
s   5 1.0 
     1238.4016938000         0.8208956682
      186.2900499200         1.4766449896
       42.2511763460         2.1526124058
       11.6765579320         2.1081722461
        3.5930506482         0.8290999933
s   1 1.0 
        0.4024514736         0.3601183351
s   1 1.0 
        0.1309018267         0.1551027052
p   3 1.0 
        9.4680970621         1.3467645142
        2.0103545142         1.0678070931
        0.5477100471         0.5108735714
p   1 1.0 
        0.1526861379         0.1360471976
d   1 1.0 
        0.8000000000         1.9292013661

 20 0
s   5 1.0 
     1238.4016938000         0.8208956682
      186.2900499200         1.4766449896
       42.2511763460         2.1526124058
       11.6765579320         2.1081722461
        3.5930506482         0.8290999933
s   1 1.0 
        0.4024514736         0.3601183351
s   1 1.0 
        0.1309018267         0.1551027052
p   3 1.0 
        9.4680970621         1.3467645142
        2.0103545142         1.0678070931
        0.5477100471         0.5108735714
p   1 1.0 
        0.1526861379         0.1360471976
d   1 1.0 
        0.8000000000         1.9292013661

 21 0
s   5 1.0 
     1238.4016938000         0.8208956682
      186.2900499200         1.4766449896
       42.2511763460         2.1526124058
       11.6765579320         2.1081722461
        3.5930506482         0.8290999933
s   1 1.0 
        0.4024514736         0.3601183351
s   1 1.0 
        0.1309018267         0.1551027052
p   3 1.0 
        9.4680970621         1.3467645142
        2.0103545142         1.0678070931
        0.5477100471         0.5108735714
p   1 1.0 
        0.1526861379         0.1360471976
d   1 1.0 
        0.8000000000         1.9292013661

 22 0
s   5 1.0 
     1238.4016938000         0.8208956682
      186.2900499200         1.4766449896
       42.2511763460         2.1526124058
       11.6765579320         2.1081722461
        3.5930506482         0.8290999933
s   1 1.0 
        0.4024514736         0.3601183351
s   1 1.0 
        0.1309018267         0.1551027052
p   3 1.0 
        9.4680970621         1.3467645142
        2.0103545142         1.0678070931
        0.5477100471         0.5108735714
p   1 1.0 
        0.1526861379         0.1360471976
d   1 1.0 
        0.8000000000         1.9292013661

 23 0
s   3 1.0 
       13.0107010000         0.1634903809
        1.9622572000         0.2773515510
        0.4445379600         0.3157501452
s   1 1.0 
        0.1219496200         0.1470772262
p   1 1.0 
        0.8000000000         1.0784563492

 24 0
s   3 1.0 
       13.0107010000         0.1634903809
        1.9622572000         0.2773515510
        0.4445379600         0.3157501452
s   1 1.0 
        0.1219496200         0.1470772262
p   1 1.0 
        0.8000000000         1.0784563492

 25 0
s   3 1.0 
       13.0107010000         0.1634903809
        1.9622572000         0.2773515510
        0.4445379600         0.3157501452
s   1 1.0 
        0.1219496200         0.1470772262
p   1 1.0 
        0.8000000000         1.0784563492

 26 0
s   3 1.0 
       13.0107010000         0.1634903809
        1.9622572000         0.2773515510
        0.4445379600         0.3157501452
s   1 1.0 
        0.1219496200         0.1470772262
p   1 1.0 
        0.8000000000         1.0784563492

 27 0
s   3 1.0 
       13.0107010000         0.1634903809
        1.9622572000         0.2773515510
        0.4445379600         0.3157501452
s   1 1.0 
        0.1219496200         0.1470772262
p   1 1.0 
        0.8000000000         1.0784563492

 28 0
s   3 1.0 
       13.0107010000         0.1634903809
        1.9622572000         0.2773515510
        0.4445379600         0.3157501452
s   1 1.0 
        0.1219496200         0.1470772262
p   1 1.0 
        0.8000000000         1.0784563492

 29 0
s   3 1.0 
       13.0107010000         0.1634903809
        1.9622572000         0.2773515510
        0.4445379600         0.3157501452
s   1 1.0 
        0.1219496200         0.1470772262
p   1 1.0 
        0.8000000000         1.0784563492

 30 0
s   3 1.0 
       13.0107010000         0.1634903809
        1.9622572000         0.2773515510
        0.4445379600         0.3157501452
s   1 1.0 
        0.1219496200         0.1470772262
p   1 1.0 
        0.8000000000         1.0784563492

 31 0
s   3 1.0 
       13.0107010000         0.1634903809
        1.9622572000         0.2773515510
        0.4445379600         0.3157501452
s   1 1.0 
        0.1219496200         0.1470772262
p   1 1.0 
        0.8000000000         1.0784563492

 32 0
s   3 1.0 
       13.0107010000         0.1634903809
        1.9622572000         0.2773515510
        0.4445379600         0.3157501452
s   1 1.0 
        0.1219496200         0.1470772262
p   1 1.0 
        0.8000000000         1.0784563492

[5D]
[9G]
[MO]
 Sym=     1a
 Ene= -2.06399657957711E+001
 Spin= Alpha
 Occup= 2.000000
  1      -0.990012838942
  2       0.037722366761
  3      -0.034215217008
  4      -0.000984417374
  5       0.001928467336
  6       0.000138462096
  7       0.003247218418
  8      -0.005240033797
  9      -0.000392300054
 10       0.000166044975
 11       0.000012027837
 12      -0.000012960500
 13       0.000018963419
 14      -0.000042122967
 15      -0.000275086025
 16       0.000581045924
 17      -0.004553098071
 18      -0.000057659511
 19      -0.000024747236
 20       0.000011114740
 21       0.000504691372
 22       0.001079641954
 23      -0.000056273514
 24      -0.000017283558
 25       0.000000933792
 26       0.000004777824
 27      -0.000011945644
 28       0.000017612933
 29       0.000004138536
 30       0.000042197157
 31      -0.000832748712
 32       0.000002978239
 33       0.000013005894
 34       0.000000628141
 35      -0.000350383116
 36      -0.000136848088
 37       0.000011261363
 38      -0.000011058758
 39       0.000000024393
 40       0.000003456168
 41      -0.000041337120
 42      -0.000026860295
 43       0.000080652107
 44      -0.000388369207
 45       0.002463041027
 46      -0.000029202924
 47       0.000025031398
 48       0.000001688670
 49       0.000596585495
 50      -0.000553787281
 51      -0.000040176782
 52      -0.000061318720
 53      -0.000005253329
 54       0.000003955045
 55      -0.000002354455
 56      -0.000022360540
 57       0.000175474364
 58      -0.000199113018
 59       0.000598181438
 60      -0.000026931714
 61      -0.000021647359
 62       0.000000794812
 63       0.000192890597
 64       0.000236550788
 65      -0.000001408238
 66      -0.000016730560
 67       0.000000136237
 68       0.000000724444
 69      -0.000017016343
 70       0.000020059502
 71       0.000168246234
 72      -0.000159916286
 73       0.000875186263
 74       0.000014403532
 75      -0.000013227862
 76       0.000006284282
 77      -0.000183251871
 78       0.000107784687
 79      -0.000177907962
 80      -0.000005527992
 81       0.000008456092
 82      -0.000009730174
 83       0.000003731116
 84       0.000002804586
 85       0.000033814405
 86      -0.000029434668
 87       0.000080528645
 88       0.000004324926
 89      -0.000000456093
 90      -0.000005439255
 91      -0.000018117437
 92      -0.000024484614
 93       0.000083866713
 94      -0.000001180497
 95      -0.000001695034
 96      -0.000004527677
 97       0.000003040170
 98      -0.000000063025
 99      -0.000008761762
100       0.000390442526
101      -0.001036212629
102       0.000116252208
103       0.000292057940
104       0.000004116262
105      -0.008828458447
106      -0.013898113907
107      -0.000042239566
108       0.000033817808
109       0.000023238113
110       0.000001669948
111      -0.000331801669
112       0.000127503685
113      -0.000047958604
114       0.002416111462
115      -0.007729216707
116       0.000237416794
117       0.000066674660
118      -0.000006577510
119       0.017072187822
120      -0.001461160703
121      -0.000913471937
122       0.000276979613
123       0.000068409914
124      -0.000021815168
125      -0.000564674345
126       0.000447194104
127      -0.000002939816
128       0.001448667173
129       0.005894540387
130      -0.000358122911
131      -0.000221969513
132       0.000011375499
133      -0.013876833730
134      -0.002725232757
135       0.000404865980
136       0.000174711421
137      -0.000022470606
138      -0.000009769044
139       0.000440023349
140      -0.000449785827
141       0.000020323066
142      -0.000166998560
143       0.011908332096
144       0.000434557510
145       0.000063878496
146      -0.000021460670
147      -0.005897848952
148       0.001942797185
149       0.000804586995
150       0.000034397646
151       0.000003755532
152       0.000012103486
153      -0.000055309747
154      -0.000190602131
155      -0.000055416625
156       0.001154668275
157      -0.012151872275
158      -0.000052430429
159       0.000144110401
160       0.000005880241
161       0.008738128928
162       0.009381786294
163      -0.000080865264
164       0.000046746561
165      -0.000010967293
166      -0.000013292607
167       0.000248446267
168      -0.000162495536
169      -0.000037253434
170       0.000476740703
171       0.018500631675
172       0.000050506604
173      -0.000139838731
174      -0.000003969944
175       0.000235640793
176      -0.009756287181
177      -0.000348925041
178       0.000030159821
179       0.000000843768
180      -0.000010584491
181       0.000109217389
182       0.000100655998
183       0.000037101569
184      -0.000710071738
185      -0.007607405213
186      -0.000272561110
187       0.000026475658
188       0.000013543781
189       0.000662576058
190       0.005120009979
191       0.000148724083
192      -0.000075449732
193      -0.000006934626
194      -0.000006034877
195       0.000098284028
196       0.000137478321
197       0.000001167490
198       0.000091776269
199       0.009678483832
200      -0.000042550070
201      -0.000113177452
202      -0.000003028112
203      -0.003849575909
204       0.005091369523
205       0.000389127293
206      -0.000043589156
207      -0.000007115297
208       0.000024992673
209      -0.000161165093
210      -0.000299972283
211       0.000028624603
212      -0.000406174644
213      -0.005995093297
214      -0.000120746245
215       0.000027375178
216       0.000006658744
217      -0.001426155420
218      -0.000604039686
219       0.000046482242
220      -0.000026667253
221      -0.000005988563
222       0.000004664010
223       0.000021446904
224      -0.000065905177
225      -0.000027692051
226       0.000392830477
227      -0.001306231892
228      -0.000116616203
229      -0.000026926788
230      -0.000092702204
231       0.002420809473
232      -0.000321269445
233       0.000890386369
234       0.000049013965
235      -0.000066267747
236       0.000024622837
237      -0.000020116247
238      -0.000035831511
239       0.000001936147
240       0.000012657447
241       0.006700852040
242      -0.000030724826
243       0.000049111725
244       0.000002511946
245       0.001553586434
246       0.001528710914
247      -0.000017389031
248      -0.000012262528
249       0.000002201882
250       0.000002531913
251      -0.000055778391
252       0.000004575000
253      -0.000028584990
254       0.000398980552
255      -0.000589425763
256      -0.000110485603
257      -0.000025314796
258       0.000095608879
259       0.002100356324
260      -0.000273455715
261      -0.000494712301
262       0.000037964882
263       0.000083335838
264      -0.000024285204
265      -0.000013350044
266      -0.000047750780
267       0.000024126379
268      -0.000382402530
269       0.000147651710
270       0.000042117058
271       0.000030186290
272       0.000025041501
273       0.000307296033
274      -0.000267394534
275      -0.001965150226
276       0.000009981837
277      -0.000007129758
278       0.000010148550
279       0.000015170494
280      -0.000000420786
281       0.000012749793
282      -0.000234315965
283      -0.000623731326
284       0.000057222732
285       0.000016525322
286      -0.000036131173
287       0.000321788683
288      -0.000251868858
289       0.000989760340
290       0.000019272293
291      -0.000016510729
292      -0.000011553486
293       0.000011620848
294      -0.000000134672
295       0.000015630429
296      -0.000208248280
297      -0.002146679632
298       0.000045422809
299      -0.000006318027
300      -0.000005420872
301       0.000620606314
302       0.000018780499
303      -0.000437416182
304       0.000013959352
305       0.000007975312
306       0.000000858082
307      -0.000001764544
308       0.000000719875
309       0.000429917157
310       0.000957251285
311      -0.000040995139
312      -0.000202812413
313      -0.000007198316
314       0.000174238630
315       0.000033875110
316      -0.000121512252
317       0.000033398061
318       0.000000715839
319      -0.000022436261
320      -0.000337328546
321      -0.000000195191
322      -0.000043933738
323      -0.000002045355
324       0.000220832788
325       0.000042195876
326      -0.000115318637
327       0.000036561698
328      -0.000003854131
329       0.000132342278
330       0.000403944824
331      -0.000014864484
332       0.000023890067
333      -0.000004615458
334       0.000141213671
335      -0.000694602717
336      -0.000109427990
337       0.000171011314
338       0.000013899085
339       0.000131778370
340       0.000016084392
341      -0.000023757530
342      -0.000014538097
343      -0.000000429616
344      -0.000044899276
345       0.000192477041
346       0.000004533010
347       0.000007560757
348       0.000000202068
349      -0.000061865728
350       0.000116061159
351       0.000012847886
352       0.000000398108
353      -0.000000273224
354      -0.000047101547
355       0.000005210123
356       0.000002290878
357      -0.000014693742
358       0.000006045558
 Sym=     1a
 Ene= -2.06153702575937E+001
 Spin= Alpha
 Occup= 2.000000
  1      -0.000029540188
  2      -0.000022715612
  3       0.000132617236
  4       0.000036774897
  5      -0.000005673072
  6      -0.000002749225
  7      -0.000326257566
  8       0.000115092851
  9       0.000017582759
 10      -0.000010378836
 11      -0.000004469431
 12       0.000002597549
 13      -0.000016262045
 14      -0.000005199508
 15       0.000085708065
 16      -0.000058726756
 17       0.000324475773
 18       0.000004480227
 19       0.000001638110
 20      -0.000000165439
 21      -0.000069184872
 22      -0.000066310161
 23      -0.000005762667
 24       0.000003526523
 25      -0.000001243754
 26       0.000001576043
 27       0.000001144110
 28      -0.000001893404
 29       0.000004164023
 30      -0.000005503246
 31       0.000037235509
 32       0.000002965383
 33       0.000003723310
 34      -0.000000324756
 35      -0.000029388884
 36      -0.000051242047
 37       0.000000506043
 38       0.000000842939
 39       0.000000123437
 40       0.000000048142
 41      -0.000001957914
 42      -0.000002220771
 43       0.000012694650
 44      -0.000028044125
 45       0.000083221078
 46      -0.000006131946
 47      -0.000000396622
 48       0.000001075604
 49       0.000049251120
 50      -0.000014538461
 51      -0.000004945716
 52      -0.000001365738
 53      -0.000000524905
 54       0.000000282242
 55       0.000000063984
 56      -0.000004507303
 57       0.000024247155
 58      -0.000005730933
 59      -0.000013985809
 60      -0.000002591060
 61      -0.000000948086
 62       0.000000153958
 63       0.000015479351
 64       0.000002223265
 65      -0.000001606078
 66      -0.000000895219
 67       0.000000037864
 68      -0.000000116279
 69      -0.000001363911
 70       0.000001193495
 71       0.041238305866
 72      -0.002492850551
 73       0.006827258250
 74       0.000111071472
 75      -0.000060189600
 76       0.000130790852
 77      -0.001710262351
 78       0.000366249271
 79      -0.001211552439
 80      -0.000037234561
 81       0.000073515108
 82      -0.000020723582
 83      -0.000022420626
 84      -0.000001504187
 85      -0.989225009965
 86       0.036476137904
 87      -0.027711646508
 88      -0.001509137610
 89      -0.000444164306
 90       0.001790478314
 91       0.007257512785
 92      -0.001378896011
 93      -0.000100895857
 94       0.000466449014
 95       0.000349842460
 96      -0.000387121459
 97      -0.000244098866
 98      -0.000105177033
 99       0.000004043536
100      -0.000057638659
101      -0.000629455890
102      -0.000026641067
103       0.000005082182
104       0.000000081344
105       0.000353713041
106       0.000051454643
107      -0.000020636840
108      -0.000001353493
109       0.000000640425
110       0.000001804044
111      -0.000014121180
112       0.000003844587
113       0.000008434419
114      -0.000130103297
115      -0.000328979350
116      -0.000055461525
117      -0.000024292490
118      -0.000003667837
119       0.000150655130
120       0.000594407466
121       0.000044347162
122       0.000003449581
123       0.000002235149
124       0.000001311079
125      -0.000008864375
126      -0.000001327422